12
	Energy:      16.2269668
C         -2.08748        0.94217       -0.00000
C         -0.85917        1.60307       -0.00000
C          0.32734        0.86978       -0.00000
C         -2.12928       -0.45203       -0.00000
C         -0.94277       -1.18532       -0.00000
C          0.28554       -0.52442       -0.00000
H         -3.08627       -0.96695       -0.00000
H         -0.97533       -2.27157       -0.00000
H          1.20998       -1.09574       -0.00000
H          1.28433        1.38470       -0.00000
H         -0.82661        2.68932       -0.00000
H         -3.01192        1.51349       -0.00000
